ITEM: TIMESTEP
0
ITEM: NUMBER OF ATOMS
105
ITEM: BOX BOUNDS pp pp pp
0.0000000000000000e+00 2.5000000000000000e+01
0.0000000000000000e+00 2.5000000000000000e+01
0.0000000000000000e+00 2.5000000000000000e+01
ITEM: ATOMS id type xs ys zs
18 2 0.0097 0.0365416 0.0441532
19 1 0.03889 0.0670036 0.0559188
27 1 0.11238 0.009568 0.0141632
20 1 0.994945 0.04753 0.004404
21 1 0.975939 0.0394548 0.071852
94 3 0.136893 0.443018 0.230852
95 3 0.155468 0.43812 0.184019
76 2 0.122129 0.594972 0.0104544
77 1 0.149623 0.58186 0.0416808
78 1 0.132397 0.636692 0.0029028
79 2 0.0620232 0.588784 0.0284052
80 1 0.0519456 0.547012 0.0359204
82 2 0.05514 0.623453 0.080552
83 1 0.0141364 0.621411 0.0957188
84 1 0.0816248 0.609878 0.112684
85 1 0.0642816 0.665671 0.0733044
22 2 0.0347776 0.978758 0.0446032
23 1 0.0484188 0.967908 0.0845936
24 1 0.0050716 0.948701 0.0337812
25 2 0.0825816 0.979532 0.00353
28 2 0.106814 0.92136 0.0048684
30 1 0.120255 0.910713 0.04498
88 3 0.726607 0.189382 0.352771
89 3 0.746188 0.182916 0.306548
7 1 0.431916 0.493418 0.464118
11 2 0.528918 0.457126 0.49888
12 1 0.513543 0.435666 0.464151
14 2 0.591905 0.458055 0.498843
15 1 0.608418 0.417523 0.498942
16 1 0.60782 0.478538 0.463551
1 2 0.426892 0.574734 0.498866
3 1 0.440978 0.59662 0.463638
4 1 0.383173 0.576792 0.498866
5 2 0.447014 0.515043 0.498866
8 2 0.510005 0.517254 0.498865
9 1 0.525296 0.53887 0.464194
41 1 0.0417584 0.497626 0.70266
6 1 0.431917 0.493418 0.533615
13 1 0.513584 0.435702 0.533648
17 1 0.607859 0.478726 0.534007
104 3 0.978822 0.296888 0.569999
105 3 0.977272 0.294841 0.51945
35 2 0.0551716 0.585164 0.701098
36 1 0.0433572 0.620878 0.723527
37 1 0.098954 0.583991 0.700903
38 1 0.042104 0.590849 0.659717
39 2 0.03051 0.532775 0.725914
2 1 0.440978 0.59662 0.534093
10 1 0.525296 0.538884 0.533527
40 1 0.986918 0.534012 0.72498
100 3 0.138098 0.797258 0.655586
101 3 0.114513 0.784105 0.612774
103 3 0.482637 0.846594 0.569695
102 3 0.514003 0.878115 0.545518
57 1 0.38305 0.240438 0.893212
96 3 0.477595 0.197654 0.834423
97 3 0.519522 0.219119 0.815822
45 2 0.0267512 0.476332 0.808753
46 1 0.037984 0.441358 0.785232
48 2 0.04765 0.471427 0.867982
49 1 0.031746 0.435649 0.88755
50 1 0.0913496 0.468865 0.869628
66 1 0.232738 0.362598 0.868724
52 2 0.4567 0.286588 0.910401
53 1 0.469946 0.291336 0.868934
54 1 0.468862 0.322645 0.932022
55 1 0.478988 0.252991 0.927423
56 2 0.394528 0.27699 0.914072
58 1 0.381972 0.271323 0.955464
59 2 0.366956 0.327577 0.888498
60 1 0.37834 0.36424 0.909208
61 1 0.379423 0.333432 0.847111
62 2 0.304984 0.316853 0.892736
63 1 0.292702 0.311028 0.934189
64 1 0.293787 0.280188 0.871918
65 2 0.276277 0.366903 0.867452
67 1 0.286366 0.403853 0.888688
68 1 0.287597 0.372652 0.825534
98 3 0.563458 0.38032 0.832322
99 3 0.56378 0.427295 0.813457
47 1 0.983178 0.47777 0.807587
92 3 0.876216 0.46172 0.792954
93 3 0.830455 0.464767 0.814403
42 2 0.0520452 0.52897 0.785032
43 1 0.0956428 0.527754 0.786179
44 1 0.0409344 0.564068 0.808442
51 1 0.0358464 0.505908 0.892272
69 2 0.187619 0.565336 0.939429
70 1 0.198146 0.606912 0.930556
71 1 0.215665 0.551204 0.969955
72 1 0.195006 0.542 0.90315
73 2 0.127791 0.559919 0.958372
74 1 0.10024 0.573201 0.927265
75 1 0.117521 0.518236 0.966138
81 1 0.03469 0.602001 0.99708
86 3 0.340663 0.522003 0.897491
87 3 0.377586 0.54882 0.875537
26 1 0.0691384 0.990391 0.963473
29 1 0.0768816 0.891472 0.994201
31 2 0.154811 0.920883 0.964053
32 1 0.17407 0.881629 0.962606
33 1 0.141633 0.930476 0.923404
34 1 0.185574 0.950124 0.974848
90 3 0.257421 0.813648 0.99202
91 3 0.257959 0.812648 0.941397
ITEM: TIMESTEP
50
ITEM: NUMBER OF ATOMS
105
ITEM: BOX BOUNDS pp pp pp
0.0000000000000000e+00 2.5000000000000000e+01
0.0000000000000000e+00 2.5000000000000000e+01
0.0000000000000000e+00 2.5000000000000000e+01
ITEM: ATOMS id type xs ys zs
18 2 0.0108247 0.0344405 0.0454233
19 1 0.036198 0.0714573 0.0464965
27 1 0.119836 0.00175889 0.0129977
20 1 0.992382 0.0392507 0.00568644
21 1 0.982128 0.036159 0.0788803
94 3 0.134991 0.443296 0.232182
95 3 0.152619 0.434929 0.186132
76 2 0.11951 0.594165 0.0121155
77 1 0.151213 0.588909 0.0419554
78 1 0.1273 0.634422 0.996826
79 2 0.0608078 0.590007 0.0299395
80 1 0.0451128 0.549529 0.036558
82 2 0.0520376 0.62686 0.0793754
83 1 0.0107578 0.616373 0.0912534
84 1 0.0812933 0.613256 0.1114
85 1 0.0518064 0.670169 0.0690434
22 2 0.0340334 0.975419 0.0417103
23 1 0.0497917 0.95751 0.0784008
24 1 0.00547582 0.945363 0.0272708
25 2 0.0836094 0.977842 0.00401477
28 2 0.108766 0.922789 0.00790676
30 1 0.116261 0.906214 0.0479613
88 3 0.726152 0.187314 0.349186
89 3 0.747292 0.179899 0.302975
7 1 0.427226 0.488133 0.473096
11 2 0.531287 0.45778 0.501042
12 1 0.524031 0.445093 0.458958
14 2 0.590407 0.458933 0.499966
15 1 0.601403 0.415922 0.50851
16 1 0.605189 0.478864 0.463641
1 2 0.424228 0.576317 0.500877
3 1 0.448299 0.600664 0.472328
4 1 0.381077 0.574743 0.489855
5 2 0.445743 0.517424 0.50178
8 2 0.50835 0.520025 0.496112
9 1 0.529138 0.544481 0.464974
41 1 0.0391037 0.504717 0.693196
6 1 0.423387 0.487806 0.527795
13 1 0.518172 0.437068 0.537521
17 1 0.610118 0.480342 0.532673
104 3 0.980818 0.300018 0.572903
105 3 0.974186 0.296501 0.521237
35 2 0.0570014 0.586395 0.701126
36 1 0.0336367 0.623644 0.711492
37 1 0.100474 0.590843 0.711905
38 1 0.0507057 0.585189 0.656761
39 2 0.0319067 0.535403 0.724857
2 1 0.431791 0.594136 0.541337
10 1 0.528021 0.541197 0.528557
40 1 0.988644 0.526408 0.716754
100 3 0.13865 0.795114 0.65446
101 3 0.112226 0.781089 0.611077
103 3 0.482349 0.845486 0.569044
102 3 0.515388 0.879847 0.548849
57 1 0.385964 0.23426 0.893313
96 3 0.477914 0.197957 0.831232
97 3 0.519482 0.219796 0.812326
45 2 0.0308031 0.474856 0.811414
46 1 0.0366836 0.440389 0.784436
48 2 0.0485067 0.472276 0.8716
49 1 0.0418431 0.433266 0.892099
50 1 0.0922317 0.47082 0.874215
66 1 0.23549 0.366763 0.861495
52 2 0.453796 0.284395 0.908257
53 1 0.462234 0.294293 0.865962
54 1 0.475174 0.317087 0.930109
55 1 0.469526 0.244672 0.919909
56 2 0.392368 0.273246 0.912385
58 1 0.376648 0.278099 0.953594
59 2 0.366529 0.32545 0.890724
60 1 0.386917 0.354117 0.91837
61 1 0.384848 0.33563 0.851762
62 2 0.304361 0.317434 0.891214
63 1 0.294768 0.312887 0.933955
64 1 0.289728 0.286748 0.862559
65 2 0.278961 0.369993 0.869182
67 1 0.287651 0.409485 0.88674
68 1 0.293065 0.368741 0.827133
98 3 0.561475 0.378109 0.83358
99 3 0.565931 0.428154 0.814395
47 1 0.987759 0.48032 0.81701
92 3 0.876112 0.464094 0.792101
93 3 0.829983 0.467068 0.812524
42 2 0.0506368 0.531113 0.786578
43 1 0.0938299 0.5342 0.779591
44 1 0.0338492 0.565941 0.807894
51 1 0.0356755 0.506063 0.897206
69 2 0.19091 0.566282 0.938764
70 1 0.202316 0.607245 0.924998
71 1 0.219392 0.546475 0.966134
72 1 0.200217 0.535497 0.907872
73 2 0.13217 0.558278 0.958845
74 1 0.0995433 0.56648 0.93009
75 1 0.122767 0.515281 0.961983
81 1 0.0292766 0.600894 0.000961003
86 3 0.343134 0.521402 0.897436
87 3 0.380845 0.549477 0.876301
26 1 0.0725005 0.98669 0.962568
29 1 0.0761177 0.895832 0.997344
31 2 0.155705 0.919922 0.962755
32 1 0.170917 0.878948 0.963963
33 1 0.134183 0.929861 0.925528
34 1 0.18711 0.948731 0.974658
90 3 0.255697 0.815125 0.989188
91 3 0.257522 0.812276 0.942113
ITEM: TIMESTEP
100
ITEM: NUMBER OF ATOMS
105
ITEM: BOX BOUNDS pp pp pp
0.0000000000000000e+00 2.5000000000000000e+01
0.0000000000000000e+00 2.5000000000000000e+01
0.0000000000000000e+00 2.5000000000000000e+01
ITEM: ATOMS id type xs ys zs
18 2 0.0116028 0.0314107 0.0460826
19 1 0.0400771 0.064046 0.0435936
27 1 0.117715 0.00301068 0.0179737
20 1 0.983719 0.0331785 0.0120555
21 1 0.986318 0.0364406 0.0811208
94 3 0.132905 0.443663 0.233986
95 3 0.149951 0.431658 0.187761
76 2 0.119743 0.592814 0.0102388
77 1 0.145895 0.591277 0.0452548
78 1 0.122183 0.633418 0.994692
79 2 0.0571706 0.590072 0.0307644
80 1 0.0472574 0.548688 0.0409863
82 2 0.0482597 0.629976 0.0791002
83 1 0.0100533 0.614315 0.0931398
84 1 0.0781399 0.628444 0.110167
85 1 0.0446274 0.672039 0.0695763
22 2 0.0335206 0.97293 0.0397687
23 1 0.0458491 0.954417 0.077202
24 1 0.00333749 0.947011 0.0214547
25 2 0.0851593 0.978753 0.00296431
28 2 0.111833 0.919909 0.00940267
30 1 0.122855 0.908803 0.0504436
88 3 0.725982 0.185147 0.344977
89 3 0.74811 0.176983 0.300025
7 1 0.42422 0.490945 0.476928
11 2 0.529508 0.462527 0.501992
12 1 0.523184 0.441009 0.46491
14 2 0.592904 0.459678 0.502018
15 1 0.604128 0.418508 0.507136
16 1 0.608021 0.470756 0.46164
1 2 0.421958 0.577065 0.502819
3 1 0.447628 0.603915 0.480971
4 1 0.382031 0.580086 0.485155
5 2 0.445191 0.519447 0.503246
8 2 0.507831 0.520055 0.495449
9 1 0.518791 0.543953 0.460548
41 1 0.0472414 0.504632 0.698397
6 1 0.426001 0.488386 0.530557
13 1 0.512975 0.433984 0.532763
17 1 0.609537 0.48466 0.533954
104 3 0.982616 0.303046 0.574313
105 3 0.971299 0.298266 0.524522
35 2 0.0583146 0.589496 0.699948
36 1 0.030935 0.622172 0.703197
37 1 0.0952143 0.600497 0.720227
38 1 0.0682855 0.579612 0.657781
39 2 0.0324446 0.536176 0.725041
2 1 0.419244 0.594917 0.546231
10 1 0.52421 0.544737 0.527956
40 1 0.991042 0.529428 0.715926
100 3 0.138236 0.792455 0.651756
101 3 0.110902 0.778579 0.610961
103 3 0.48277 0.845115 0.567966
102 3 0.516064 0.880838 0.552607
57 1 0.3771 0.231374 0.89439
96 3 0.478223 0.198237 0.828022
97 3 0.519436 0.220475 0.808835
45 2 0.0345984 0.476926 0.813953
46 1 0.0398268 0.440609 0.790831
48 2 0.050971 0.47216 0.874792
49 1 0.0421374 0.434181 0.893701
50 1 0.0945459 0.478652 0.876608
66 1 0.23778 0.372496 0.862019
52 2 0.452035 0.281747 0.905337
53 1 0.459021 0.293 0.864041
54 1 0.471793 0.307863 0.934161
55 1 0.468461 0.241816 0.910002
56 2 0.39098 0.269065 0.912505
58 1 0.373161 0.270932 0.951546
59 2 0.367689 0.324464 0.891498
60 1 0.381173 0.348385 0.925132
61 1 0.383013 0.338747 0.853832
62 2 0.303525 0.319159 0.89039
63 1 0.288791 0.305471 0.929211
64 1 0.288024 0.288253 0.86467
65 2 0.280639 0.373348 0.868781
67 1 0.292928 0.410045 0.889381
68 1 0.302667 0.371664 0.831067
98 3 0.559723 0.378588 0.833814
99 3 0.567829 0.42631 0.816368
47 1 0.99176 0.47754 0.821562
92 3 0.876097 0.46647 0.79122
93 3 0.829462 0.469375 0.810672
42 2 0.0477454 0.530636 0.785823
43 1 0.0901808 0.540242 0.783211
44 1 0.0334741 0.564117 0.809582
51 1 0.0318231 0.503405 0.898883
69 2 0.193621 0.565396 0.938102
70 1 0.205763 0.60423 0.923188
71 1 0.224939 0.554622 0.967801
72 1 0.202078 0.537334 0.906081
73 2 0.135446 0.557497 0.960686
74 1 0.106729 0.566169 0.929116
75 1 0.130899 0.514281 0.967085
81 1 0.0317089 0.603542 0.99824
86 3 0.346208 0.521249 0.897032
87 3 0.383463 0.549657 0.877419
26 1 0.074976 0.987178 0.961663
29 1 0.0770558 0.896638 0.997404
31 2 0.154358 0.91871 0.964319
32 1 0.171644 0.878886 0.958055
33 1 0.13816 0.928521 0.925044
34 1 0.189881 0.946448 0.967727
90 3 0.25384 0.816789 0.989268
91 3 0.257185 0.811731 0.939921
ITEM: TIMESTEP
150
ITEM: NUMBER OF ATOMS
105
ITEM: BOX BOUNDS pp pp pp
0.0000000000000000e+00 2.5000000000000000e+01
0.0000000000000000e+00 2.5000000000000000e+01
0.0000000000000000e+00 2.5000000000000000e+01
ITEM: ATOMS id type xs ys zs
18 2 0.0111402 0.0278261 0.0463174
19 1 0.0468386 0.0541607 0.0405125
27 1 0.109318 0.0109771 0.0212647
20 1 0.977062 0.03473 0.0189719
21 1 0.99396 0.0377763 0.0864039
94 3 0.130854 0.443995 0.235683
95 3 0.147245 0.42843 0.189488
76 2 0.117535 0.592131 0.00857839
77 1 0.142156 0.588308 0.043969
78 1 0.120061 0.633733 0.996078
79 2 0.0565123 0.59139 0.0313252
80 1 0.0487574 0.550733 0.0445684
82 2 0.0444382 0.631576 0.0776054
83 1 0.00869112 0.618069 0.100445
84 1 0.0765776 0.637108 0.110867
85 1 0.037527 0.673998 0.0654949
22 2 0.0348474 0.970994 0.0371131
23 1 0.0388501 0.953645 0.0773878
24 1 0.00284264 0.948232 0.0178408
25 2 0.0867542 0.976879 0.003382
28 2 0.112589 0.919125 0.0102934
30 1 0.134001 0.912949 0.0482107
88 3 0.725874 0.182958 0.340631
89 3 0.748867 0.174088 0.297211
7 1 0.423042 0.49741 0.472289
11 2 0.528534 0.464545 0.501975
12 1 0.516649 0.435811 0.469599
14 2 0.595329 0.460537 0.503753
15 1 0.612482 0.41945 0.509335
16 1 0.614244 0.465923 0.465241
1 2 0.419542 0.578879 0.505785
3 1 0.447833 0.609244 0.488938
4 1 0.384062 0.583943 0.479174
5 2 0.443615 0.519822 0.504183
8 2 0.506614 0.522263 0.496311
9 1 0.511757 0.536866 0.453305
41 1 0.0583584 0.501613 0.71231
6 1 0.436363 0.497711 0.540939
13 1 0.502637 0.441662 0.527721
17 1 0.612613 0.488276 0.532571
104 3 0.984298 0.306022 0.575067
105 3 0.968531 0.300087 0.528465
35 2 0.0589128 0.590375 0.699572
36 1 0.0290703 0.623597 0.692456
37 1 0.089058 0.610154 0.725971
38 1 0.082258 0.582644 0.66258
39 2 0.0337755 0.537779 0.723687
2 1 0.403121 0.59066 0.543001
10 1 0.520834 0.548497 0.527416
40 1 0.989294 0.537812 0.718999
100 3 0.137621 0.789685 0.648722
101 3 0.109774 0.776169 0.61118
103 3 0.483566 0.845139 0.566692
102 3 0.516363 0.88143 0.556558
57 1 0.368623 0.234465 0.891055
96 3 0.478517 0.198477 0.824782
97 3 0.519392 0.22116 0.805346
45 2 0.0365642 0.478118 0.817384
46 1 0.0504129 0.442576 0.795114
48 2 0.0541756 0.472713 0.877383
49 1 0.0415926 0.433036 0.893649
50 1 0.0959716 0.4843 0.882548
66 1 0.239002 0.379987 0.863155
52 2 0.449933 0.277254 0.902378
53 1 0.460734 0.295838 0.86268
54 1 0.464796 0.302655 0.936282
55 1 0.47403 0.240336 0.901842
56 2 0.388703 0.266978 0.912245
58 1 0.377467 0.257668 0.955153
59 2 0.366595 0.321661 0.892986
60 1 0.373945 0.350206 0.925613
61 1 0.384158 0.340461 0.85639
62 2 0.304235 0.32111 0.889849
63 1 0.281945 0.304604 0.925025
64 1 0.291263 0.286427 0.865363
65 2 0.28316 0.37613 0.868296
67 1 0.29659 0.408388 0.894851
68 1 0.307066 0.380186 0.830919
98 3 0.558029 0.379813 0.833769
99 3 0.569648 0.423706 0.818631
47 1 0.993688 0.472669 0.823693
92 3 0.876106 0.468853 0.790341
93 3 0.828956 0.471685 0.808819
42 2 0.0460005 0.531412 0.784419
43 1 0.0884421 0.540249 0.791298
44 1 0.028709 0.563212 0.810933
51 1 0.0295327 0.500645 0.900718
69 2 0.197262 0.563917 0.937952
70 1 0.202285 0.605741 0.922753
71 1 0.226906 0.564823 0.969948
72 1 0.202756 0.538835 0.901626
73 2 0.138016 0.556871 0.962966
74 1 0.115026 0.565126 0.926178
75 1 0.137402 0.515678 0.977982
81 1 0.0332669 0.60044 0.995388
86 3 0.349376 0.521169 0.896564
87 3 0.385947 0.549739 0.878609
26 1 0.0797222 0.991729 0.962305
29 1 0.0803813 0.890668 0.00228155
31 2 0.154667 0.917116 0.964611
32 1 0.171674 0.877047 0.956499
33 1 0.137916 0.928363 0.924971
34 1 0.188211 0.943628 0.967478
90 3 0.251938 0.818506 0.990098
91 3 0.256863 0.811145 0.936982
ITEM: TIMESTEP
200
ITEM: NUMBER OF ATOMS
105
ITEM: BOX BOUNDS pp pp pp
0.0000000000000000e+00 2.5000000000000000e+01
0.0000000000000000e+00 2.5000000000000000e+01
0.0000000000000000e+00 2.5000000000000000e+01
ITEM: ATOMS id type xs ys zs
18 2 0.0104751 0.0257811 0.046916
19 1 0.0437275 0.0504056 0.0352717
27 1 0.105546 0.0107146 0.0231796
20 1 0.977356 0.0409418 0.0225524
21 1 0.00453264 0.0326674 0.0897397
94 3 0.12905 0.444094 0.236681
95 3 0.144292 0.425442 0.191906
76 2 0.114492 0.593439 0.00873703
77 1 0.142257 0.58384 0.0414482
78 1 0.12085 0.635338 0.997263
79 2 0.0575949 0.592614 0.0310206
80 1 0.046905 0.553156 0.0463006
82 2 0.0407868 0.633443 0.0769944
83 1 0.00847769 0.623895 0.104789
84 1 0.0748043 0.639496 0.10048
85 1 0.0289992 0.669756 0.0557475
22 2 0.0341191 0.968109 0.0355148
23 1 0.0387395 0.949501 0.0743392
24 1 0.00625606 0.94457 0.0120281
25 2 0.0890563 0.975757 0.00431074
28 2 0.11326 0.919185 0.0107975
30 1 0.136454 0.91488 0.0469885
88 3 0.725482 0.180879 0.336817
89 3 0.749906 0.171083 0.293866
7 1 0.424767 0.501647 0.470581
11 2 0.529855 0.465159 0.500791
12 1 0.511147 0.439337 0.472301
14 2 0.595357 0.460882 0.505356
15 1 0.612298 0.423864 0.520325
16 1 0.616521 0.470443 0.467194
1 2 0.417125 0.579705 0.507239
3 1 0.447015 0.611059 0.503055
4 1 0.388077 0.582729 0.475193
5 2 0.442172 0.521637 0.505361
8 2 0.503637 0.524461 0.496518
9 1 0.512202 0.532372 0.45623
41 1 0.0558631 0.501848 0.722949
6 1 0.441512 0.507253 0.547862
13 1 0.503817 0.448387 0.535184
17 1 0.615204 0.490728 0.530801
104 3 0.986279 0.309111 0.576665
105 3 0.965465 0.301797 0.531566
35 2 0.0599582 0.591906 0.699395
36 1 0.0297448 0.61653 0.67954
37 1 0.0779261 0.614673 0.732439
38 1 0.0913003 0.586499 0.669203
39 2 0.0353212 0.539619 0.722497
2 1 0.395163 0.589069 0.548768
10 1 0.52423 0.555795 0.521284
40 1 0.99336 0.537198 0.715904
100 3 0.137995 0.787388 0.647016
101 3 0.107654 0.773273 0.610077
103 3 0.484003 0.844761 0.565519
102 3 0.517021 0.88242 0.560409
57 1 0.368459 0.236083 0.883435
96 3 0.478813 0.198673 0.821485
97 3 0.519342 0.221844 0.801859
45 2 0.0376458 0.478233 0.820062
46 1 0.0614818 0.449099 0.798472
48 2 0.0563181 0.474298 0.879474
49 1 0.0519831 0.433011 0.892904
50 1 0.0980985 0.483168 0.891635
66 1 0.24445 0.384605 0.861539
52 2 0.448674 0.272198 0.899397
53 1 0.457287 0.300893 0.868007
54 1 0.458861 0.296434 0.933191
55 1 0.476583 0.238684 0.897779
56 2 0.386151 0.263661 0.912292
58 1 0.386029 0.248949 0.952653
59 2 0.365201 0.321243 0.895331
60 1 0.371223 0.35386 0.923511
61 1 0.387968 0.334681 0.861364
62 2 0.302707 0.321108 0.888885
63 1 0.280853 0.313303 0.925056
64 1 0.296218 0.289524 0.860134
65 2 0.286702 0.379064 0.868085
67 1 0.297423 0.40732 0.8999
68 1 0.301943 0.393806 0.82948
98 3 0.55573 0.378877 0.83447
99 3 0.57205 0.423248 0.820159
47 1 0.995304 0.466966 0.821024
92 3 0.876046 0.471248 0.789501
93 3 0.828557 0.473991 0.806931
42 2 0.0458483 0.533092 0.785796
43 1 0.0873943 0.538713 0.795817
44 1 0.0191214 0.561809 0.803634
51 1 0.0306052 0.499475 0.904447
69 2 0.198867 0.564459 0.938682
70 1 0.194631 0.603914 0.921718
71 1 0.232873 0.563025 0.966968
72 1 0.210765 0.537017 0.90657
73 2 0.14207 0.555567 0.964093
74 1 0.118634 0.556415 0.927215
75 1 0.13734 0.515658 0.981224
81 1 0.0301709 0.593616 0.996891
86 3 0.35195 0.520625 0.896376
87 3 0.388985 0.550257 0.879525
26 1 0.0847934 0.98867 0.963335
29 1 0.0870385 0.882884 0.0142239
31 2 0.155974 0.915127 0.962468
32 1 0.170187 0.874136 0.96087
33 1 0.133622 0.927555 0.927712
34 1 0.189619 0.944727 0.974808
90 3 0.250298 0.819818 0.988047
91 3 0.256253 0.810974 0.936928
ITEM: TIMESTEP
250
ITEM: NUMBER OF ATOMS
105
ITEM: BOX BOUNDS pp pp pp
0.0000000000000000e+00 2.5000000000000000e+01
0.0000000000000000e+00 2.5000000000000000e+01
0.0000000000000000e+00 2.5000000000000000e+01
ITEM: ATOMS id type xs ys zs
18 2 0.01127 0.0234595 0.047298
19 1 0.0401959 0.0536394 0.0305688
27 1 0.115242 0.00453259 0.027672
20 1 0.974528 0.0399498 0.028485
21 1 0.0106973 0.0275987 0.0912188
94 3 0.127319 0.444119 0.237462
95 3 0.141263 0.422535 0.194532
76 2 0.114947 0.595289 0.00804581
77 1 0.142454 0.582101 0.0383215
78 1 0.12481 0.636133 0.998512
79 2 0.0559198 0.591927 0.0306817
80 1 0.0497844 0.553353 0.0500777
82 2 0.0377382 0.635697 0.075126
83 1 0.00621916 0.622884 0.103254
84 1 0.0777499 0.64625 0.0969134
85 1 0.0226095 0.669184 0.0514208
22 2 0.0324052 0.966242 0.0336118
23 1 0.0411571 0.94125 0.0690764
24 1 0.00901144 0.939449 0.00787793
25 2 0.0891151 0.975172 0.00577754
28 2 0.116807 0.918114 0.0105368
30 1 0.137564 0.919853 0.0496262
88 3 0.724993 0.178838 0.333183
89 3 0.751042 0.168041 0.290342
7 1 0.422101 0.495066 0.4807
11 2 0.531039 0.467655 0.50085
12 1 0.513699 0.441163 0.469438
14 2 0.593287 0.462412 0.506663
15 1 0.604193 0.42413 0.52783
16 1 0.611927 0.470097 0.468599
1 2 0.414649 0.58033 0.50956
3 1 0.445218 0.612182 0.5161
4 1 0.392367 0.586615 0.471182
5 2 0.44147 0.525402 0.507145
8 2 0.503098 0.52415 0.496562
9 1 0.514223 0.536225 0.453722
41 1 0.056846 0.500907 0.722661
6 1 0.436187 0.505336 0.544802
13 1 0.524967 0.457468 0.542381
17 1 0.60816 0.494462 0.532628
104 3 0.988364 0.312239 0.578557
105 3 0.962298 0.30347 0.534376
35 2 0.0613235 0.593484 0.699347
36 1 0.0313929 0.609711 0.670427
37 1 0.0671256 0.620154 0.734758
38 1 0.0988589 0.586134 0.676596
39 2 0.0365983 0.540961 0.724738
2 1 0.38972 0.582429 0.541775
10 1 0.524984 0.557307 0.512053
40 1 0.995858 0.531178 0.707444
100 3 0.138758 0.785271 0.645821
101 3 0.105139 0.770183 0.60847
103 3 0.484312 0.844241 0.564385
102 3 0.517806 0.883549 0.564219
57 1 0.368906 0.23237 0.883001
96 3 0.479124 0.198818 0.818099
97 3 0.519275 0.222522 0.79838
45 2 0.0394779 0.480202 0.820767
46 1 0.0668454 0.452738 0.800668
48 2 0.0580207 0.476003 0.881778
49 1 0.0598032 0.433182 0.893849
50 1 0.0997931 0.48557 0.889705
66 1 0.245982 0.384526 0.862538
52 2 0.445851 0.268463 0.897529
53 1 0.452578 0.298433 0.865351
54 1 0.459192 0.289282 0.935379
55 1 0.471693 0.232925 0.893837
56 2 0.386385 0.261425 0.909964
58 1 0.382383 0.244104 0.95089
59 2 0.363565 0.320533 0.899132
60 1 0.374718 0.352373 0.927075
61 1 0.386476 0.329107 0.861371
62 2 0.301802 0.32217 0.886536
63 1 0.280755 0.316071 0.925972
64 1 0.292857 0.292676 0.854838
65 2 0.289901 0.381845 0.868456
67 1 0.299769 0.40916 0.901008
68 1 0.305276 0.399595 0.830814
98 3 0.553131 0.377009 0.835491
99 3 0.574731 0.423709 0.821378
47 1 0.000854055 0.46021 0.812685
92 3 0.875967 0.473652 0.78868
93 3 0.828214 0.476297 0.805025
42 2 0.0449449 0.533003 0.787667
43 1 0.0857435 0.544765 0.799862
44 1 0.0163911 0.564477 0.79996
51 1 0.0324784 0.498882 0.909347
69 2 0.199663 0.565568 0.940283
70 1 0.195106 0.605404 0.919231
71 1 0.23528 0.562832 0.965378
72 1 0.214072 0.533972 0.912145
73 2 0.144712 0.554109 0.965687
74 1 0.118619 0.546371 0.931193
75 1 0.140264 0.51416 0.982329
81 1 0.0260643 0.592401 0.998954
86 3 0.354313 0.519917 0.89628
87 3 0.392193 0.550909 0.880354
26 1 0.0870705 0.982923 0.96216
29 1 0.0907508 0.885072 0.0202246
31 2 0.155507 0.913651 0.963071
32 1 0.172274 0.873151 0.958985
33 1 0.137232 0.925195 0.924205
34 1 0.187448 0.938785 0.971941
90 3 0.2488 0.820905 0.984565
91 3 0.255479 0.811032 0.938313
ITEM: TIMESTEP
300
ITEM: NUMBER OF ATOMS
105
ITEM: BOX BOUNDS pp pp pp
0.0000000000000000e+00 2.5000000000000000e+01
0.0000000000000000e+00 2.5000000000000000e+01
0.0000000000000000e+00 2.5000000000000000e+01
ITEM: ATOMS id type xs ys zs
18 2 0.012762 0.0219222 0.0473716
19 1 0.0369122 0.05381 0.0316706
27 1 0.118771 0.997409 0.0252997
20 1 0.969906 0.0269906 0.0370082
21 1 0.0119468 0.0266968 0.0906462
94 3 0.125449 0.444366 0.238668
95 3 0.138372 0.419413 0.196725
76 2 0.115488 0.596389 0.00711018
77 1 0.14478 0.582112 0.0365001
78 1 0.127097 0.637762 0.997992
79 2 0.0548396 0.591661 0.0310544
80 1 0.0549322 0.553145 0.0514758
82 2 0.0371239 0.636322 0.0707009
83 1 0.0084235 0.620162 0.0995931
84 1 0.0664728 0.656327 0.0932047
85 1 0.0168536 0.671769 0.0533866
22 2 0.0324304 0.963822 0.0309008
23 1 0.0384354 0.937683 0.0647151
24 1 0.0050359 0.942354 0.00457391
25 2 0.0886491 0.973108 0.00756912
28 2 0.119173 0.91835 0.0134081
30 1 0.142436 0.922896 0.0495966
88 3 0.724826 0.176664 0.329022
89 3 0.751855 0.165133 0.287344
7 1 0.417122 0.494478 0.491336
11 2 0.531476 0.470375 0.501497
12 1 0.518726 0.439108 0.474967
14 2 0.59124 0.464867 0.508486
15 1 0.59917 0.42636 0.525653
16 1 0.61237 0.462429 0.468717
1 2 0.412423 0.582525 0.510848
3 1 0.439759 0.613361 0.52356
4 1 0.395891 0.595437 0.472691
5 2 0.441024 0.525812 0.509307
8 2 0.504845 0.525208 0.493882
9 1 0.507198 0.538209 0.454086
41 1 0.0655139 0.509718 0.71662
6 1 0.430179 0.502378 0.546513
13 1 0.536118 0.456 0.548203
17 1 0.602492 0.497781 0.535384
104 3 0.989756 0.315137 0.579305
105 3 0.959827 0.305377 0.538332
35 2 0.0616439 0.592915 0.700324
36 1 0.0394428 0.605949 0.665324
37 1 0.0585712 0.628552 0.725962
38 1 0.104562 0.588319 0.690784
39 2 0.0377717 0.541201 0.727274
2 1 0.373921 0.579917 0.543546
10 1 0.525973 0.558108 0.516115
40 1 0.00293262 0.529804 0.706676
100 3 0.138415 0.782656 0.643417
101 3 0.103725 0.767578 0.608076
103 3 0.485265 0.844475 0.56326
102 3 0.517947 0.883919 0.56802
57 1 0.366462 0.228012 0.882708
96 3 0.479442 0.198884 0.814595
97 3 0.519208 0.223204 0.794902
45 2 0.0417372 0.481164 0.820874
46 1 0.0727244 0.455998 0.803268
48 2 0.0595116 0.477344 0.882899
49 1 0.0607051 0.436324 0.896202
50 1 0.100274 0.495443 0.882037
66 1 0.249009 0.385891 0.864171
52 2 0.445703 0.26645 0.896518
53 1 0.452549 0.289161 0.859864
54 1 0.464988 0.280203 0.932558
55 1 0.461672 0.226305 0.887251
56 2 0.384005 0.259242 0.90783
58 1 0.373149 0.245309 0.947003
59 2 0.361603 0.318928 0.902054
60 1 0.379058 0.344818 0.933011
61 1 0.379972 0.327067 0.864913
62 2 0.302773 0.324586 0.88434
63 1 0.278713 0.310936 0.916756
64 1 0.284567 0.29654 0.856036
65 2 0.291851 0.384327 0.869387
67 1 0.303548 0.412831 0.900748
68 1 0.316362 0.39469 0.834236
98 3 0.551562 0.377325 0.835862
99 3 0.576364 0.421973 0.823256
47 1 0.00643915 0.459102 0.80978
92 3 0.875971 0.476058 0.78784
93 3 0.827824 0.478608 0.803138
42 2 0.0439825 0.534229 0.789526
43 1 0.0808543 0.554094 0.801758
44 1 0.0159238 0.564634 0.801313
51 1 0.0347953 0.497172 0.913055
69 2 0.200982 0.566794 0.941638
70 1 0.204358 0.602579 0.918169
71 1 0.233196 0.571488 0.972232
72 1 0.208949 0.534106 0.914129
73 2 0.143996 0.55262 0.968797
74 1 0.117079 0.544995 0.935999
75 1 0.149774 0.512521 0.987319
81 1 0.024946 0.59143 0.999357
86 3 0.357227 0.519667 0.895948
87 3 0.394807 0.551078 0.881427
26 1 0.0870378 0.985007 0.96667
29 1 0.0897553 0.885217 0.0151291
31 2 0.155937 0.911106 0.962042
32 1 0.173224 0.871906 0.956248
33 1 0.141828 0.922629 0.922749
34 1 0.193898 0.940524 0.966148
90 3 0.246949 0.822509 0.983449
91 3 0.255043 0.810574 0.93734
ITEM: TIMESTEP
350
ITEM: NUMBER OF ATOMS
105
ITEM: BOX BOUNDS pp pp pp
0.0000000000000000e+00 2.5000000000000000e+01
0.0000000000000000e+00 2.5000000000000000e+01
0.0000000000000000e+00 2.5000000000000000e+01
ITEM: ATOMS id type xs ys zs
18 2 0.0132682 0.0196252 0.0480601
19 1 0.032304 0.0555537 0.0283948
27 1 0.115209 0.000183759 0.031386
20 1 0.970209 0.0156759 0.0417896
21 1 0.0172067 0.0263082 0.0915527
94 3 0.123552 0.444649 0.239948
95 3 0.135506 0.416261 0.198835
76 2 0.115906 0.596067 0.00633618
77 1 0.146572 0.583856 0.0350222
78 1 0.124676 0.63668 0.99455
79 2 0.0568739 0.591395 0.0299261
80 1 0.056417 0.552925 0.050426
82 2 0.0357392 0.637592 0.0665406
83 1 0.0104223 0.617248 0.0963671
84 1 0.0682679 0.660704 0.0924107
85 1 0.0117604 0.66929 0.0478766
22 2 0.0313152 0.961809 0.0295761
23 1 0.0305928 0.934689 0.0643431
24 1 0.00155184 0.947824 0.999856
25 2 0.0904482 0.970762 0.00727444
28 2 0.121382 0.918225 0.0150288
30 1 0.146911 0.916021 0.0512377
88 3 0.724848 0.174409 0.324561
89 3 0.752479 0.162305 0.284646
7 1 0.414466 0.496622 0.491569
11 2 0.529896 0.470921 0.504274
12 1 0.515694 0.436364 0.480046
14 2 0.592587 0.467338 0.509194
15 1 0.601085 0.427404 0.529143
16 1 0.615704 0.463044 0.473584
1 2 0.410019 0.582784 0.513286
3 1 0.4331 0.615268 0.533916
4 1 0.402287 0.602533 0.473594
5 2 0.44097 0.526717 0.511995
8 2 0.503452 0.528682 0.4918
9 1 0.502692 0.541394 0.448159
41 1 0.0738303 0.517374 0.709214
6 1 0.434255 0.505339 0.54846
13 1 0.520882 0.457068 0.541587
17 1 0.609441 0.499479 0.534089
104 3 0.990578 0.31785 0.579229
105 3 0.957927 0.307473 0.543115
35 2 0.0618543 0.593101 0.70201
36 1 0.0498149 0.597744 0.658372
37 1 0.0518029 0.63239 0.71997
38 1 0.106137 0.591116 0.702483
39 2 0.0404953 0.540384 0.728262
2 1 0.374218 0.5809 0.527836
10 1 0.524741 0.553424 0.519249
40 1 0.999168 0.527237 0.714032
100 3 0.137366 0.779724 0.640273
101 3 0.103014 0.765275 0.608429
103 3 0.486737 0.84533 0.562191
102 3 0.517568 0.883665 0.571763
57 1 0.361724 0.23054 0.877328
96 3 0.479764 0.198838 0.810926
97 3 0.519166 0.223905 0.791416
45 2 0.0443885 0.480329 0.821658
46 1 0.0785313 0.458426 0.80525
48 2 0.060723 0.47918 0.881928
49 1 0.0649938 0.437813 0.898305
50 1 0.0976515 0.501368 0.881365
66 1 0.251313 0.395196 0.85939
52 2 0.445268 0.262896 0.895353
53 1 0.456877 0.285945 0.859556
54 1 0.474254 0.278074 0.926608
55 1 0.454165 0.222257 0.885125
56 2 0.380485 0.257657 0.906216
58 1 0.368875 0.245285 0.947081
59 2 0.362077 0.315343 0.903938
60 1 0.37513 0.339886 0.937619
61 1 0.379714 0.33252 0.8655
62 2 0.301655 0.326015 0.883363
63 1 0.273516 0.309859 0.915105
64 1 0.287266 0.299625 0.85095
65 2 0.294101 0.387176 0.870456
67 1 0.306244 0.415367 0.901473
68 1 0.319858 0.392577 0.83512
98 3 0.550812 0.379214 0.835784
99 3 0.57716 0.418651 0.825591
47 1 0.00653418 0.458975 0.814162
92 3 0.87602 0.478469 0.786992
93 3 0.827423 0.480921 0.801259
42 2 0.043308 0.5384 0.792047
43 1 0.0787156 0.561112 0.80278
44 1 0.00853005 0.561613 0.808985
51 1 0.0349998 0.500311 0.910628
69 2 0.200283 0.567617 0.944678
70 1 0.20521 0.603265 0.917706
71 1 0.228445 0.575533 0.975954
72 1 0.210299 0.534389 0.917471
73 2 0.143335 0.55319 0.972048
74 1 0.11317 0.543721 0.941542
75 1 0.156535 0.518418 0.994809
81 1 0.026636 0.58621 0.998767
86 3 0.360435 0.519667 0.89549
87 3 0.397087 0.550973 0.882631
26 1 0.0852915 0.989482 0.966476
29 1 0.0941628 0.885339 0.0140821
31 2 0.158487 0.909805 0.961199
32 1 0.171433 0.867472 0.958407
33 1 0.134586 0.920025 0.924597
34 1 0.190588 0.933407 0.960254
90 3 0.244794 0.824565 0.984236
91 3 0.254914 0.809653 0.934477
ITEM: TIMESTEP
400
ITEM: NUMBER OF ATOMS
105
ITEM: BOX BOUNDS pp pp pp
0.0000000000000000e+00 2.5000000000000000e+01
0.0000000000000000e+00 2.5000000000000000e+01
0.0000000000000000e+00 2.5000000000000000e+01
ITEM: ATOMS id type xs ys zs
18 2 0.0134933 0.016387 0.0493031
19 1 0.0241294 0.0494497 0.0228187
27 1 0.103594 0.00115958 0.0336867
20 1 0.969876 0.0151108 0.0433304
21 1 0.0251402 0.0244238 0.0909814
94 3 0.121821 0.444531 0.240648
95 3 0.132473 0.413516 0.201517
76 2 0.116382 0.598083 0.00756733
77 1 0.146997 0.590743 0.040052
78 1 0.121917 0.638185 0.988493
79 2 0.0585684 0.590506 0.0281681
80 1 0.0566781 0.553703 0.0517845
82 2 0.0350048 0.639069 0.0639007
83 1 0.010488 0.618212 0.0931137
84 1 0.0666523 0.657569 0.0813511
85 1 0.00858316 0.663037 0.037483
22 2 0.0306074 0.961308 0.0288962
23 1 0.0227535 0.931018 0.0592413
24 1 0.00559487 0.950245 0.995568
25 2 0.0915914 0.969864 0.0076908
28 2 0.125578 0.916946 0.0133837
30 1 0.145764 0.909807 0.0514807
88 3 0.724583 0.172282 0.32051
89 3 0.75339 0.15935 0.281538