105
 Atoms. Timestep: 0
2 10.6723 14.3684 12.4717
1 11.0245 14.9155 13.3523
1 11.0245 14.9155 11.591
1 9.57932 14.4198 12.4717
2 11.1753 12.8761 12.4717
1 10.7979 12.3355 13.3404
1 10.7979 12.3354 11.6029
2 12.7501 12.9313 12.4716
1 13.1324 13.4718 11.6049
1 13.1324 13.4721 13.3382
2 13.2229 11.4282 12.472
1 12.8386 10.8917 11.6038
1 12.8396 10.8925 13.3412
2 14.7976 11.4514 12.4711
1 15.2104 10.4381 12.4735
1 15.1955 11.9634 11.5888
1 15.1965 11.9681 13.3502
2 0.2425 0.91354 1.10383
1 0.97225 1.67509 1.39797
1 24.8736 1.18825 0.1101
1 24.3985 0.98637 1.7963
2 0.86944 24.4689 1.11508
1 1.21047 24.1977 2.11484
1 0.12679 23.7175 0.84453
2 2.06454 24.4883 0.08825
1 1.72846 24.7598 24.0868
1 2.80951 0.2392 0.35408
2 2.67036 23.034 0.12171
1 1.92204 22.2868 24.855
1 3.00638 22.7678 1.1245
2 3.87027 23.0221 24.1013
1 4.35176 22.0407 24.0651
1 3.54082 23.2619 23.0851
1 4.63935 23.7531 24.3712
2 1.37929 14.6291 17.5274
1 1.08393 15.522 18.0882
1 2.47385 14.5998 17.5226
1 1.0526 14.7712 16.4929
2 0.76275 13.3194 18.1479
1 24.673 13.3503 18.1245
1 1.04396 12.4406 17.5665
2 1.30113 13.2242 19.6258
1 2.39107 13.1938 19.6545
1 1.02336 14.1017 20.2111
2 0.66878 11.9083 20.2188
1 0.9496 11.034 19.6308
1 24.5795 11.9443 20.1897
2 1.19125 11.7857 21.6995
1 0.79365 10.8912 22.1887
1 2.28374 11.7216 21.7407
1 0.89616 12.6477 22.3068
2 11.4175 7.16471 22.76
1 11.7487 7.2834 21.7234
1 11.7215 8.06612 23.3006
1 11.9747 6.32478 23.1856
2 9.86319 6.92474 22.8518
1 9.57626 6.01094 22.3303
1 9.5493 6.78307 23.8866
2 9.1739 8.18942 22.2124
1 9.45849 9.10599 22.7302
1 9.48557 8.3358 21.1778
2 7.62459 7.92132 22.3184
1 7.31756 7.77569 23.3547
1 7.34468 7.00469 21.798
2 6.90692 9.17258 21.6863
1 5.81845 9.06496 21.7181
1 7.15914 10.0963 22.2172
1 7.18992 9.3163 20.6383
2 4.69047 14.1334 23.4857
1 4.95366 15.1728 23.2639
1 5.39163 13.7801 24.2489
1 4.87514 13.55 22.5787
2 3.19477 13.998 23.9593
1 2.50599 14.33 23.1816
1 2.93803 12.9559 24.1534
2 3.05322 14.8743 0.26136
1 3.74058 14.5465 1.04202
1 3.30993 15.9173 0.07257
2 1.55058 14.7196 0.71013
1 1.29864 13.6753 0.89801
1 0.86725 15.05 24.927
2 1.3785 15.5863 2.0138
1 0.35341 15.5353 2.39297
1 2.04062 15.247 2.81709
1 1.60704 16.6418 1.83261
3 8.51658 13.0501 22.4373
3 9.43965 13.7205 21.8884
3 18.1652 4.73455 8.81928
3 18.6547 4.57291 7.6637
3 6.43553 20.3412 24.8005
3 6.44898 20.3162 23.5349
3 21.9054 11.543 19.8238
3 20.7614 11.6192 20.3601
3 3.42232 11.0755 5.7713
3 3.88671 10.953 4.60048
3 11.9399 4.94134 20.8606
3 12.988 5.47798 20.3956
3 14.0865 9.50799 20.8081
3 14.0945 10.6824 20.3364
3 3.45246 19.9314 16.3896
3 2.86282 19.6026 15.3194
3 12.8501 21.9529 13.638
3 12.0659 21.1649 14.2424
3 24.4705 7.42219 14.25
3 24.4318 7.37102 12.9862
105
 Atoms. Timestep: 50
2 10.6057 14.4079 12.5219
1 10.7948 14.8534 13.5334
1 11.2075 15.0166 11.8082
1 9.52693 14.3686 12.2464
2 11.1436 12.9356 12.5445
1 10.5847 12.1952 13.1949
1 10.6806 12.2033 11.8274
2 12.7087 13.0006 12.4028
1 13.2285 13.612 11.6243
1 13.2005 13.5299 13.2139
2 13.2822 11.4445 12.5261
1 13.1008 11.1273 11.474
1 12.9543 10.9267 13.438
2 14.7602 11.4733 12.4991
1 15.0351 10.398 12.7127
1 15.1297 11.9716 11.591
1 15.253 12.0085 13.3168
2 0.270617 0.861013 1.13558
1 0.90495 1.78643 1.16241
1 24.8095 0.981267 0.142161
1 24.5532 0.903974 1.97201
2 0.850835 24.3855 1.04276
1 1.24479 23.9378 1.96002
1 0.136896 23.6341 0.681769
2 2.09023 24.4461 0.100369
1 1.81251 24.6672 24.0642
1 2.99589 0.0439723 0.324942
2 2.71916 23.0697 0.197669
1 1.90294 22.3958 24.9336
1 2.90652 22.6554 1.19903
2 3.89262 22.9981 24.0689
1 4.27292 21.9737 24.0991
1 3.35457 23.2465 23.1382
1 4.67775 23.7183 24.3665
2 1.42504 14.6599 17.5281
1 0.840917 15.5911 17.7873
1 2.51184 14.7711 17.7976
1 1.26764 14.6297 16.419
2 0.797666 13.3851 18.1214
1 24.7161 13.1602 17.9188
1 0.977593 12.6179 17.3299
2 1.26592 13.2778 19.6644
1 2.34575 13.355 19.4898
1 0.846231 14.1485 20.1973
2 0.770078 11.8714 20.2854
1 0.91709 11.0097 19.6109
1 24.694 12.008 20.4252
2 1.21267 11.8069 21.79
1 1.04608 10.8316 22.3025
1 2.30579 11.7705 21.8554
1 0.891887 12.6516 22.4301
2 11.3449 7.10988 22.7064
1 11.5558 7.35733 21.6491
1 11.8794 7.92718 23.2527
1 11.7382 6.11679 22.9977
2 9.8092 6.83115 22.8096
1 9.64911 5.85651 22.3328
1 9.41621 6.95247 23.8399
2 9.16322 8.13625 22.2681
1 9.67293 8.85293 22.9592
1 9.62119 8.39076 21.294
2 7.60903 7.93586 22.2804
1 7.3692 7.82216 23.3489
1 7.24319 7.16871 21.564
2 6.97404 9.24983 21.7296
1 5.88724 9.16909 21.5374
1 7.19128 10.2371 22.1685
1 7.32663 9.21853 20.6783
2 4.77274 14.1571 23.4691
1 5.0579 15.1811 23.1249
1 5.48479 13.6619 24.1534
1 5.00544 13.3874 22.6968
2 3.30426 13.957 23.9711
1 2.48858 14.162 23.2522
1 3.06918 12.882 24.0496
2 2.98776 14.8541 0.302887
1 3.78032 14.7227 1.04889
1 3.1825 15.8606 24.9206
2 1.5202 14.7502 0.748488
1 1.12782 13.7382 0.913951
1 0.731915 15.0223 0.0240251
2 1.30094 15.6715 1.98438
1 0.268945 15.4093 2.28134
1 2.03233 15.3314 2.78501
1 1.29516 16.7542 1.72609
3 8.57836 13.035 22.4359
3 9.52113 13.7369 21.9075
3 18.1538 4.68286 8.72964
3 18.6823 4.49748 7.57436
3 6.39242 20.3781 24.7297
3 6.43806 20.3069 23.5528
3 21.9028 11.6023 19.8025
3 20.7496 11.6767 20.3131
3 3.37478 11.0824 5.80454
3 3.81547 10.8732 4.6533
3 11.9478 4.94893 20.7808
3 12.9871 5.49489 20.3081
3 14.0369 9.45272 20.8395
3 14.1483 10.7038 20.3599
3 3.46626 19.8779 16.3615
3 2.80566 19.5272 15.2769
3 12.8847 21.9962 13.7212
3 12.0587 21.1372 14.2261
3 24.5205 7.50044 14.3226
3 24.3546 7.41252 13.0309
105
 Atoms. Timestep: 100
2 10.5489 14.4266 12.5705
1 10.4811 14.8729 13.6558
1 11.1907 15.0979 12.0243
1 9.55078 14.5022 12.1289
2 11.1298 12.9862 12.5811
1 10.65 12.2097 13.2639
1 10.6055 12.2736 11.9232
2 12.6958 13.0014 12.3862
1 12.9698 13.5988 11.5137
1 13.1052 13.6184 13.1989
2 13.2377 11.5632 12.5498
1 13.0796 11.0252 11.6228
1 12.8244 10.8496 13.3191
2 14.8226 11.492 12.5505
1 15.1032 10.4627 12.6784
1 15.2005 11.7689 11.541
1 15.2384 12.1165 13.3489
2 0.290071 0.785267 1.15207
1 1.00193 1.60115 1.08984
1 24.593 0.829461 0.301387
1 24.658 0.911016 2.02802
2 0.838015 24.3232 0.994217
1 1.14623 23.8604 1.93005
1 0.0834373 23.6753 0.536368
2 2.12898 24.4688 0.0741077
1 1.8744 24.6795 24.0416
1 2.94289 0.075267 0.449342
2 2.79583 22.9977 0.235067
1 1.9264 22.416 24.9351
1 3.07138 22.7201 1.26109
2 3.85894 22.9678 24.108
1 4.29111 21.9721 23.9514
1 3.454 23.213 23.1261
1 4.74702 23.6612 24.1932
2 1.45786 14.7374 17.4987
1 0.773374 15.5543 17.5799
1 2.38036 15.0124 18.0057
1 1.70714 14.4903 16.4445
2 0.811114 13.4044 18.126
1 24.7761 13.2357 17.8981
1 1.18104 12.6158 17.4599
2 1.19363 13.2659 19.6456
1 2.25452 13.506 19.5803
1 0.836852 14.1029 20.2395
2 0.864959 11.9231 20.3488
1 0.995669 11.0152 19.7708
1 24.794 11.9385 20.5391
2 1.27427 11.804 21.8698
1 1.05344 10.8545 22.3425
1 2.36365 11.9663 21.9152
1 0.795578 12.5851 22.4721
2 11.3009 7.04368 22.6334
1 11.4755 7.32499 21.601
1 11.7948 7.69657 23.354
1 11.7115 6.04539 22.75
2 9.77449 6.72664 22.8126
1 9.42749 5.78434 22.3597
1 9.32903 6.77331 23.7887
2 9.19221 8.1116 22.2874
1 9.52933 8.70963 23.1283
1 9.57533 8.46868 21.3458
2 7.58813 7.97896 22.2597
1 7.21978 7.63678 23.2303
1 7.20061 7.20633 21.6167
2 7.01597 9.33369 21.7195
1 5.9445 9.3124 21.5505
1 7.32321 10.2511 22.2345
1 7.56668 9.2916 20.7767
2 4.84052 14.1349 23.4526
1 5.14407 15.1057 23.0797
1 5.62346 13.8655 24.195
1 5.05196 13.4333 22.652
2 3.38614 13.9374 24.0171
1 2.66821 14.1542 23.2279
1 3.27247 12.857 24.1771
2 2.99357 14.8203 0.25597
1 3.64738 14.7819 1.13137
1 3.05456 15.8355 24.8673
2 1.42926 14.7518 0.769111
1 1.18144 13.7172 1.02466
1 0.792722 15.0885 24.956
2 1.20649 15.7494 1.9775
1 0.251332 15.3579 2.3285
1 1.9535 15.7111 2.75418
1 1.11569 16.801 1.73941
3 8.65519 13.0312 22.4258
3 9.58658 13.7414 21.9355
3 18.1496 4.62867 8.62442
3 18.7028 4.42457 7.50062
3 6.34601 20.4197 24.7317
3 6.42963 20.2933 23.498
3 21.9024 11.6618 19.7805
3 20.7366 11.7344 20.2668
3 3.32263 11.0916 5.84965
3 3.74877 10.7914 4.69401
3 11.9556 4.95592 20.7005
3 12.9859 5.51187 20.2209
3 13.9931 9.4647 20.8453
3 14.1957 10.6577 20.4092
3 3.45589 19.8114 16.2939
3 2.77256 19.4645 15.274
3 12.9016 22.021 13.8152
3 12.0692 21.1279 14.1991
3 24.5654 7.57615 14.3578
3 24.2825 7.45665 13.1131
105
 Atoms. Timestep: 150
2 10.4885 14.472 12.6446
1 10.078 14.7665 13.575
1 11.1958 15.2311 12.2234
1 9.60155 14.5986 11.9793
2 11.0904 12.9955 12.6046
1 10.9091 12.4428 13.5235
1 10.5761 12.4352 11.8072
2 12.6654 13.0566 12.4078
1 12.7939 13.4216 11.3326
1 13.0209 13.7124 13.1854
2 13.2134 11.6136 12.5494
1 12.9162 10.8953 11.74
1 12.5659 11.0416 13.193
2 14.8832 11.5134 12.5938
1 15.312 10.4863 12.7334
1 15.3561 11.6481 11.631
1 15.3153 12.2069 13.3143
2 0.278505 0.695653 1.15793
1 1.17097 1.35402 1.01281
1 24.4265 0.868251 0.474296
1 24.849 0.944408 2.1601
2 0.871184 24.2748 0.927826
1 0.971252 23.8411 1.93469
1 0.071066 23.7058 0.44602
2 2.16885 24.422 0.0845499
1 1.99305 24.7932 24.0576
1 2.73295 0.274429 0.531616
2 2.81473 22.9781 0.257336
1 2.00953 22.2667 0.0570387
1 3.35003 22.8237 1.20527
2 3.86666 22.9279 24.1153
1 4.29184 21.9262 23.9125
1 3.44789 23.2091 23.1243
1 4.70528 23.5907 24.187
2 1.47282 14.7594 17.4893
1 0.726758 15.5899 17.3114
1 2.22645 15.2538 18.1493
1 2.05645 14.5661 16.5645
2 0.844388 13.4445 18.0922
1 24.7323 13.4453 17.975
1 1.45896 12.5403 17.8077
2 1.15001 13.2853 19.6105
1 2.21105 13.5062 19.7824
1 0.717726 14.0803 20.2733
2 0.914105 11.9529 20.4346
1 1.26032 11.0644 19.8779
1 24.8422 11.8167 20.5923
2 1.35439 11.8178 21.9346
1 1.03982 10.8259 22.3412
1 2.39929 12.1075 22.0637
1 0.738318 12.5161 22.5179
2 11.2483 6.93134 22.5595
1 11.5183 7.39594 21.567
1 11.6199 7.56637 23.407
1 11.8507 6.00839 22.5461
2 9.71758 6.67445 22.8061
1 9.21558 5.86161 22.2764
1 9.43667 6.4417 23.8788
2 9.16488 8.04153 22.3246
1 9.34863 8.75515 23.1403
1 9.60395 8.51152 21.4098
2 7.60586 8.02775 22.2462
1 7.04863 7.61511 23.1256
1 7.28157 7.16068 21.6341
2 7.07901 9.40326 21.7074
1 5.97506 9.49967 21.5789
1 7.41475 10.2097 22.3713
1 7.67665 9.50465 20.773
2 4.93155 14.0979 23.4488
1 5.05714 15.1435 23.0688
1 5.67264 14.1206 24.2487
1 5.0689 13.4709 22.5407
2 3.4504 13.9218 24.0741
1 2.87565 14.1281 23.1545
1 3.43505 12.8919 24.4496
2 2.93837 14.8033 0.21446
1 3.5539 14.7077 1.09922
1 3.00152 15.8433 24.9019
2 1.41281 14.7847 0.783129
1 1.21894 13.7683 1.11421
1 0.831674 15.011 24.8847
2 1.11096 15.7894 1.94014
1 0.217278 15.4517 2.51113
1 1.91444 15.9277 2.77167
1 0.938175 16.85 1.63737
3 8.73439 13.0292 22.4141
3 9.64867 13.7435 21.9652
3 18.1468 4.57395 8.51578
3 18.7217 4.3522 7.43028
3 6.29846 20.4627 24.7524
3 6.42159 20.2786 23.4246
3 21.9026 11.7213 19.7585
3 20.7239 11.7921 20.2205
3 3.27136 11.0999 5.89208
3 3.68114 10.7107 4.73719
3 11.9629 4.96192 20.6196
3 12.9848 5.529 20.1336
3 13.9507 9.49532 20.8442
3 14.2412 10.5926 20.4658
3 3.44052 19.7421 16.218
3 2.74436 19.4042 15.2795
3 12.9091 22.0357 13.914
3 12.0892 21.1285 14.1673
3 24.6074 7.65055 14.3767
3 24.2133 7.50216 13.2116
105
 Atoms. Timestep: 200
2 10.4281 14.4926 12.681
1 9.87906 14.7267 13.7192
1 11.1754 15.2765 12.5764
1 9.70193 14.5682 11.8798
2 11.0543 13.0409 12.634
1 11.0378 12.6813 13.6965
1 10.6192 12.5412 11.7645
2 12.5909 13.1115 12.413
1 12.8051 13.3093 11.4057
1 13.1057 13.8949 13.0321
2 13.2464 11.629 12.5198
1 12.7787 10.9834 11.8075
1 12.5954 11.2097 13.3796
2 14.8839 11.5221 12.6339
1 15.3075 10.5966 13.0081
1 15.413 11.7611 11.6799
1 15.3801 12.2682 13.27
2 0.261878 0.644527 1.1729
1 1.09319 1.26014 0.881793
1 24.4339 1.02355 0.56381
1 0.113316 0.816684 2.24349
2 0.852979 24.2027 0.88787
1 0.968487 23.7375 1.85848
1 0.156402 23.6143 0.300703
2 2.22641 24.3939 0.107769
1 2.11983 24.7167 24.0834
1 2.63866 0.267866 0.579489
2 2.8315 22.9796 0.269938
1 2.17596 22.0721 0.355598
1 3.41136 22.872 1.17471
2 3.89935 22.8782 24.0617
1 4.25467 21.8534 24.0218
1 3.34056 23.1889 23.1928
1 4.74049 23.6182 24.3702
2 1.49895 14.7976 17.4849
1 0.743619 15.4133 16.9885
1 1.94815 15.3668 18.311
1 2.28251 14.6625 16.7301
2 0.88303 13.4905 18.0624
1 24.834 13.4299 17.8976
1 1.39658 12.5462 18.0737
2 1.14621 13.3273 19.6449
1 2.18486 13.4678 19.8954
1 0.478034 14.0452 20.0908
2 0.941146 11.9558 20.5015
1 1.53705 11.2275 19.9618
1 24.8826 11.6741 20.5256
2 1.40795 11.8575 21.9868
1 1.29958 10.8253 22.3226
1 2.45246 12.0792 22.2909
1 0.76513 12.4869 22.6112
2 11.2168 6.80495 22.4849
1 11.4322 7.52234 21.7002
1 11.4715 7.41084 23.3298
1 11.9146 5.96709 22.4445
2 9.65377 6.59153 22.8073
1 9.21149 5.90208 22.0859
1 9.65072 6.22372 23.8163
2 9.13004 8.03108 22.3833
1 9.28058 8.8465 23.0878
1 9.69921 8.36701 21.5341
2 7.56767 8.0277 22.2221
1 7.02132 7.83256 23.1264
1 7.40546 7.2381 21.5033
2 7.16754 9.47661 21.7021
1 6.11126 9.61513 21.5385
1 7.43559 10.183 22.4975
1 7.54858 9.84514 20.737
2 4.97168 14.1115 23.467
1 4.86576 15.0979 23.0429
1 5.82182 14.0756 24.1742
1 5.26913 13.4254 22.6642
2 3.55174 13.8892 24.1023
1 2.96586 13.9104 23.1804
1 3.43349 12.8915 24.5306
2 2.86231 14.836 0.218426
1 3.55642 14.596 1.03621
1 3.02124 15.8835 24.9316
2 1.43987 14.8154 0.775516
1 1.17263 13.8289 1.15752
1 0.754273 14.8404 24.9223
2 1.01967 15.8361 1.92486
1 0.211942 15.5974 2.61973
1 1.87011 15.9874 2.51199
1 0.724981 16.7439 1.39369
3 8.79874 13.0156 22.4094
3 9.72463 13.7564 21.9881
3 18.137 4.52198 8.42043
3 18.7476 4.27708 7.34666
3 6.25745 20.4955 24.7012
3 6.40634 20.2744 23.4232
3 21.9011 11.7812 19.7375
3 20.7139 11.8498 20.1733
3 3.22624 11.1024 5.91702
3 3.60731 10.636 4.79765
3 11.9703 4.96682 20.5371
3 12.9835 5.54611 20.0465
3 13.8932 9.47194 20.8618
3 14.3012 10.5812 20.504
3 3.44987 19.6847 16.1754
3 2.69134 19.3318 15.2519
3 12.9255 22.0605 14.0102
3 12.1001 21.119 14.138
3 24.657 7.72777 14.4166
3 24.1366 7.54492 13.2892
105
 Atoms. Timestep: 250
2 10.3662 14.5083 12.739
1 9.74299 14.5607 13.5444
1 11.1304 15.3045 12.9025
1 9.80917 14.6654 11.7796
2 11.0368 13.135 12.6786
1 10.9047 12.6334 13.62
1 10.5525 12.3766 12.0175
2 12.5775 13.1037 12.4141
1 12.8556 13.4056 11.3431
1 13.1246 13.9327 12.8013
2 13.276 11.6914 12.5212
1 12.8425 11.0291 11.7359
1 13.1242 11.4367 13.5595
2 14.8322 11.5603 12.6666
1 15.1048 10.6032 13.1958
1 15.2982 11.7524 11.715
1 15.204 12.3615 13.3157
2 0.281749 0.586488 1.18245
1 1.0049 1.34098 0.76422
1 24.3632 0.998744 0.712125
1 0.267434 0.689968 2.28047
2 0.81013 24.156 0.840296
1 1.02893 23.5312 1.72691
1 0.225286 23.4862 0.196948
2 2.22788 24.3793 0.144439
1 2.17676 24.5731 24.054
1 2.88105 0.113315 0.691801
2 2.92017 22.9529 0.263419
1 2.26877 22.1268 0.505616
1 3.4391 22.9963 1.24066
2 3.88768 22.8413 24.0768
1 4.30685 21.8288 23.9746
1 3.43079 23.1299 23.1051
1 4.6862 23.4696 24.2985
2 1.53309 14.8371 17.4837
1 0.784821 15.2428 16.7607
1 1.67814 15.5038 18.369
1 2.47147 14.6534 16.9149
2 0.914959 13.524 18.1185
1 24.8964 13.2795 17.6861
1 1.42115 12.5227 18.0665
2 1.12362 13.3251 19.6917
1 2.14359 13.6191 19.9965
1 0.409777 14.1119 19.999
2 0.986948 12.005 20.5192
1 1.67114 11.3184 20.0167
1 0.0213514 11.5053 20.3171
2 1.45052 11.9001 22.0444
1 1.49508 10.8296 22.3462
1 2.49483 12.1393 22.2426
1 0.811961 12.472 22.7337
2 11.1463 6.71158 22.4382
1 11.3144 7.46082 21.6338
1 11.4798 7.23205 23.3845
1 11.7923 5.82313 22.3459
2 9.65962 6.53562 22.7491
1 9.22266 5.80926 22.075
1 9.55958 6.1026 23.7723
2 9.08914 8.01332 22.4783
1 9.36794 8.80932 23.1769
1 9.6619 8.22768 21.5343
2 7.54506 8.05425 22.1634
1 7.01887 7.90179 23.1493
1 7.32143 7.3169 21.3709
2 7.24752 9.54612 21.7114
1 6.14955 9.61314 21.5635
1 7.49423 10.229 22.5252
1 7.63189 9.98989 20.7703
2 4.99158 14.1392 23.5071
1 4.87766 15.1351 22.9808
1 5.88201 14.0708 24.1345
1 5.3518 13.3493 22.8036
2 3.61779 13.8527 24.1422
1 2.96548 13.6593 23.2798
1 3.5066 12.854 24.5582
2 2.87368 14.8822 0.201145
1 3.56135 14.5525 0.958037
1 3.12024 15.9033 24.9628
2 1.39799 14.7982 0.767043
1 1.24461 13.8338 1.25194
1 0.651607 14.81 24.9738
2 0.943455 15.8924 1.87815
1 0.155479 15.5721 2.58134
1 1.94375 16.1562 2.42283
1 0.565237 16.7296 1.28552
3 8.85782 12.9979 22.407
3 9.80483 13.7727 22.0088
3 18.1248 4.47096 8.32957
3 18.776 4.20103 7.25855
3 6.22001 20.5226 24.6141
3 6.38697 20.2758 23.4578
3 21.8992 11.8413 19.717
3 20.7053 11.9074 20.1256
3 3.18297 11.103 5.93655
3 3.53158 10.5634 4.8633
3 11.9781 4.97044 20.4525
3 12.9819 5.56306 19.9595
3 13.8283 9.42522 20.8873
3 14.3683 10.5927 20.5345
3 3.46894 19.6318 16.1455
3 2.62848 19.2546 15.2117
3 12.9452 22.0887 14.1055
3 12.1078 21.106 14.1096
3 24.7091 7.80598 14.4639
3 24.0575 7.58675 13.3594
105
 Atoms. Timestep: 300
2 10.3106 14.5631 12.7712
1 9.34804 14.4979 13.5886
1 10.994 15.334 13.089
1 9.89727 14.8859 11.8173
2 11.0256 13.1453 12.7327
1 10.7545 12.5594 13.6628
1 10.428 12.3619 12.2834
2 12.6211 13.1302 12.3471
1 12.6799 13.4552 11.3522
1 13.1493 13.9527 12.9029
2 13.2869 11.7594 12.5374
1 12.9681 10.9777 11.8742
1 13.403 11.4 13.7051
2 14.781 11.6217 12.7122
1 14.9793 10.659 13.1413
1 15.3092 11.5607 11.7179
1 15.0623 12.4445 13.3846
2 0.319051 0.548054 1.18429
1 0.922805 1.34525 0.791766
1 24.2477 0.674764 0.925205
1 0.29867 0.66742 2.26615
2 0.810761 24.0956 0.772519
1 0.960885 23.4421 1.61788
1 0.125897 23.5589 0.114348
2 2.21623 24.3277 0.189228
1 2.17595 24.6252 24.1667
1 2.96927 24.9352 0.632493
2 2.97933 22.9587 0.335201
1 2.24388 22.1304 0.378227
1 3.56091 23.0724 1.23992
2 3.89843 22.7776 24.051
1 4.3306 21.7977 23.9062
1 3.5457 23.0657 23.0687
1 4.84744 23.5131 24.1537
2 1.5411 14.8229 17.5081
1 0.98607 15.1487 16.6331
1 1.46428 15.7138 18.149
1 2.61405 14.708 17.2696
2 0.944293 13.53 18.1819
1 0.0733155 13.2451 17.6669
1 1.63785 12.743 17.9155
2 1.09956 13.3557 19.7381
1 2.02136 13.8523 20.0439
1 0.398096 14.1159 20.0328
2 1.04343 12.0291 20.5219
1 1.81811 11.3999 20.0817
1 0.160979 11.4775 20.2445
2 1.48779 11.9336 22.0725
1 1.51763 10.9081 22.405
1 2.50684 12.3861 22.0509
1 0.869883 12.4293 22.8264
2 11.1426 6.66124 22.413
1 11.3137 7.22902 21.4966
1 11.6247 7.00508 23.314
1 11.5418 5.65764 22.1813
2 9.60013 6.48105 22.6958
1 9.16156 5.70031 22.0677
1 9.32873 6.13273 23.6751
2 9.04009 7.97321 22.5514
1 9.47644 8.62045 23.3253
1 9.49929 8.17666 21.6228
2 7.56932 8.11465 22.1085
1 6.96782 7.77339 22.9189
1 7.11418 7.4135 21.4009
2 7.29629 9.60817 21.7347
1 6.22522 9.64727 21.6043
1 7.5887 10.3208 22.5187
1 7.90906 9.86725 20.8559
2 5.02454 14.1699 23.5409
1 5.10894 15.0645 22.9542
1 5.8299 14.2872 24.3058
1 5.22371 13.3526 22.8532
2 3.59989 13.8155 24.2199
1 2.92698 13.6249 23.4
1 3.74434 12.813 24.683
2 2.8872 14.9097 0.177754
1 3.61949 14.5528 0.912502
1 3.17743 15.9441 24.9498
2 1.37099 14.7915 0.77636
1 1.37331 13.8286 1.28689
1 0.62365 14.7858 24.9839
2 0.928097 15.9081 1.76752
1 0.210587 15.504 2.48983
1 1.66182 16.4082 2.33012
1 0.421339 16.7942 1.33466
3 8.93068 12.9917 22.3987
3 9.87018 13.777 22.0357
3 18.1206 4.41659 8.22554
3 18.7964 4.12833 7.1836
3 6.17373 20.5627 24.5862
3 6.37609 20.2643 23.4335
3 21.8993 11.9015 19.696
3 20.6956 11.9652 20.0785
3 3.13622 11.1091 5.9667
3 3.4593 10.4853 4.91812
3 11.986 4.97211 20.3649
3 12.9802 5.58009 19.8726
3 13.7891 9.43313 20.8966
3 14.4091 10.5493 20.5814
3 3.46039 19.5664 16.0854
3 2.59313 19.1894 15.2019
3 12.9487 22.098 14.2005
3 12.1316 21.1119 14.0815
3 24.7439 7.87843 14.4826
3 23.9957 7.63443 13.4583
105
 Atoms. Timestep: 350
2 10.2505 14.5696 12.8322
1 9.35546 14.5225 13.1959
1 10.8275 15.3817 13.3479
1 10.0572 15.0633 11.8399
2 11.0242 13.1679 12.7999
1 10.8564 12.6335 13.7115
1 10.3617 12.4156 12.2892
2 12.5863 13.217 12.295
1 12.5673 13.5348 11.204
1 13.1185 13.8356 12.9812
2 13.2474 11.773 12.6069
1 12.8924 10.9091 12.0011
1 13.0221 11.4267 13.5397
2 14.8147 11.6835 12.7299
1 15.0271 10.6851 13.2286
1 15.3926 11.5761 11.8396
1 15.236 12.487 13.3522
2 0.331706 0.49063 1.2015
1 0.807599 1.38884 0.709871
1 24.2552 0.391896 1.04474
1 0.430168 0.657705 2.28882
2 0.782881 24.0452 0.739403
1 0.764821 23.3672 1.60858
1 0.0387961 23.6956 24.9964
2 2.26121 24.2691 0.181861
1 2.13229 24.737 24.1619
1 2.88022 0.00459398 0.784651
2 3.03456 22.9556 0.375721
1 2.35407 22.1335 0.352052
1 3.67278 22.9005 1.28094
2 3.96219 22.7451 24.03
1 4.28582 21.6868 23.9602
1 3.36465 23.0006 23.1149
1 4.7647 23.3352 24.0064
2 1.54636 14.8275 17.5502
1 1.24537 14.9436 16.4593
1 1.29507 15.8097 17.9992
1 2.65343 14.7779 17.5621
2 1.01238 13.5096 18.2066
1 24.9792 13.1809 17.8508
1 1.84576 12.9343 17.7304
2 1.0827 13.46 19.8012
1 1.96789 14.0278 20.0695
1 0.213251 14.0403 20.2246
2 1.10971 12.0082 20.5415
1 1.96328 11.4606 20.1313
1 0.163354 11.4744 20.3541
2 1.51808 11.9795 22.0482
1 1.62485 10.9453 22.4576
1 2.44129 12.5342 22.0341
1 0.874995 12.5078 22.7657
2 11.1317 6.57241 22.3838
1 11.4219 7.14863 21.4889
1 11.8563 6.95184 23.1652
1 11.3541 5.55642 22.1281
2 9.51213 6.44143 22.6554
1 9.0431 5.7635 21.9332
1 9.22186 6.13213 23.677
2 9.05192 7.88357 22.5985
1 9.37826 8.49716 23.4405
1 9.49286 8.31301 21.6375
2 7.54137 8.15037 22.0841
1 6.83791 7.74649 22.8776
1 7.18165 7.49062 21.2737
2 7.35253 9.67939 21.7614
1 6.28284 9.87989 21.4847
1 7.65609 10.3842 22.5368
1 7.99645 9.81443 20.878
2 5.00708 14.1904 23.6169
1 5.13026 15.0816 22.9427
1 5.71113 14.3883 24.3989
1 5.25748 13.3597 22.9368
2 3.58337 13.8298 24.3012
1 2.82924 13.593 23.5385
1 3.91338 12.9604 24.8702
2 2.89764 14.9017 0.158404
1 3.6643 14.5964 0.875555
1 3.11689 15.917 24.8638
2 1.42185 14.7849 0.748153
1 1.41042 13.8231 1.26065
1 0.665899 14.6552 24.9692
2 0.893481 15.9398 1.66352
1 0.260557 15.4312 2.40918
1 1.7067 16.5176 2.31027
1 0.294009 16.7322 1.19692
3 9.01088 12.9917 22.3872
3 9.92717 13.7743 22.0658
3 18.1212 4.36023 8.11402
3 18.812 4.05762 7.11615
3 6.11986 20.6141 24.6059
3 6.37284 20.2413 23.3619
3 21.9005 11.9617 19.6748
3 20.6856 12.023 20.0315
3 3.08879 11.1162 5.99869
3 3.38765 10.4065 4.97088
3 11.9941 4.97095 20.2732
3 12.9791 5.59762 19.7854
3 13.7703 9.48035 20.8946
3 14.429 10.4663 20.6398
3 3.43416 19.4931 16.0068
3 2.57534 19.1319 15.2107
3 12.9392 22.0916 14.2941
3 12.1684 21.1332 14.0548
3 24.7644 7.94625 14.4807
3 23.9482 7.68683 13.5779
105
 Atoms. Timestep: 400
2 10.2607 14.568 12.8591
1 9.01742 14.4482 13.1626
1 10.6288 15.2446 13.6322
1 10.3015 15.006 11.8691
2 11.0356 13.222 12.8398
1 11.143 12.7721 13.886
1 10.5306 12.5806 12.1489
2 12.4764 13.2288 12.2905
1 12.6704 13.597 11.3142
1 13.1366 13.9347 12.8461
2 13.1836 11.8168 12.6426
1 12.7492 11.0777 11.9945
1 12.5132 11.5398 13.5976
2 14.85 11.7242 12.7691
1 15.1195 10.8834 13.352
1 15.405 11.7536 11.781
1 15.4151 12.5227 13.267
2 0.337332 0.409675 1.23258
1 0.603236 1.23624 0.570468
1 24.2469 0.37777 1.08326
1 0.628505 0.610594 2.27453
2 0.765185 24.0327 0.722405
1 0.568838 23.2754 1.48103
1 0.139872 23.7561 24.8892
2 2.28978 24.2466 0.19227
1 2.2713 24.6397 24.2097
1 2.58985 0.0289894 0.842169
2 3.13946 22.9237 0.334592
1 2.4417 22.0592 0.480961
1 3.64411 22.7452 1.28702
2 3.95889 22.7033 24.0477
1 4.24718 21.6738 23.9859
1 3.26325 22.8578 23.2501
1 4.98464 23.3713 23.9386
2 1.56422 14.8357 17.573
1 1.54753 14.6553 16.5018
1 1.00402 15.7165 17.9388
1 2.62105 14.9368 17.8699
2 1.07452 13.4832 18.2859
1 0.122399 13.1533 18.0436
1 1.82174 13.0452 17.6271
2 1.0626 13.5394 19.8531
1 1.89067 14.1722 20.1605
1 0.158014 13.8384 20.3478
2 1.17502 12.0374 20.5189
1 1.96435 11.443 20.0697
1 0.265159 11.4644 20.4593
2 1.54287 12.0398 22.0193
1 1.81313 11.0747 22.4477
1 2.51176 12.5882 22.1587
1 0.761434 12.5947 22.5694
2 11.0845 6.46615 22.3473
1 11.3822 7.09371 21.5068
1 11.7854 6.81569 23.0733
1 11.3327 5.40294 22.1866
2 9.48921 6.37737 22.6329
1 8.91211 5.89126 21.8343
1 9.2478 5.96166 23.6025
2 9.03533 7.86176 22.584
1 9.2187 8.36965 23.5414
1 9.48273 8.49883 21.8739
2 7.50609 8.18101 22.0956
1 6.76697 7.91455 22.7891
1 7.45063 7.65139 21.1347
2 7.40431 9.71219 21.7772
1 6.4883 10.1614 21.3816
1 7.73744 10.3757 22.5957
1 8.02883 9.92811 20.905
2 4.95838 14.214 23.6928
1 4.83986 15.0751 23.0529
1 5.74408 14.3588 24.4817
1 5.46575 13.3737 23.1779
2 3.60716 13.8238 24.3182
1 2.82003 13.4313 23.657
1 3.8625 13.0046 0.0303333
2 2.90955 14.9521 0.189183
1 3.67493 14.7686 1.0013
1 3.04793 15.9546 24.7123
2 1.46421 14.7627 0.704202
1 1.41695 13.8426 1.29461
1 0.786163 14.5258 24.8886
2 0.875121 15.9767 1.59752
1 0.262199 15.4553 2.32784
1 1.66631 16.4392 2.03378
1 0.214579 16.5759 0.937076
3 9.07836 12.9809 22.38
3 9.99588 13.7818 22.0918
3 18.1146 4.30704 8.01275
3 18.8348 3.98375 7.03845
3 6.07691 20.6498 24.5771
3 6.35904 20.2335 23.3392
3 21.9001 12.0222 19.6543
3 20.678 12.0808 19.9838
3 3.04551 11.1133 6.0162
3 3.31183 10.3379 5.03792
3 12.0026 4.96762 20.1779
3 12.9784 5.6155 19.6982
3 13.7261 9.49152 20.9018
3 14.4739 10.4189 20.6892
3 3.43268 19.43 15.9509
3 2.5327 19.0637 15.1971
3 12.9358 22.0928 14.3899
3 12.1992 21.147 14.0258
3 24.7969 8.01786 14.4911
3 23.8889 7.73552 13.6852
105
 Atoms. Timestep: 450
2 10.2102 14.5835 12.907
1 9.29324 14.3696 12.8879
1 10.4775 15.1475 13.8208
1 10.571 15.0833 11.9508
2 11.0242 13.2489 12.8981
1 11.2477 12.9327 13.8783
1 10.6033 12.5589 12.1107
2 12.4893 13.2145 12.3136
1 12.605 13.5716 11.2332
1 13.0351 14.0519 12.7086
2 13.1183 11.8977 12.6846
1 12.7949 11.2015 11.8929
1 12.5729 11.7123 13.4927
2 14.8188 11.7869 12.7986
1 15.2273 10.9116 13.3875
1 15.1853 11.7689 11.801
1 15.275 12.6712 13.2546
2 0.30523 0.371892 1.26304
1 0.551706 1.10555 0.471141
1 24.2038 0.444984 1.38533
1 0.806837 0.624339 2.21534
2 0.799543 23.9824 0.663927
1 0.577397 23.1415 1.32967
1 0.241798 23.7273 24.7431
2 2.27949 24.1979 0.244006
1 2.46291 24.5408 24.1805
1 2.49472 0.0735876 0.906069
2 3.18994 22.891 0.335816
1 2.52145 22.0734 0.497489
1 3.77014 22.8321 1.26025
2 3.99248 22.6632 24.0428
1 4.32034 21.5976 23.9757
1 3.27876 22.8173 23.1865
1 4.76227 23.2364 23.8884
2 1.5825 14.7936 17.6325
1 1.7553 14.6162 16.5491
1 0.780777 15.5644 17.7135
1 2.52155 15.2116 18.0738
2 1.11339 13.5024 18.3816
1 0.124192 13.069 18.0074
1 1.89544 12.967 17.7972
2 1.08163 13.5462 19.9132
1 1.74417 14.3134 20.334
1 0.0747173 13.8421 20.3231
2 1.24433 12.092 20.46
1 1.92253 11.4645 19.8632
1 0.318108 11.4946 20.3987
2 1.59534 12.1354 22.0037
1 1.77225 11.1285 22.4435
1 2.48445 12.6795 22.2391
1 0.703226 12.5512 22.4987
2 11.0048 6.33376 22.3076
1 11.2019 6.94073 21.398
1 11.5286 6.71479 23.2561
1 11.4144 5.34015 22.1568
2 9.50083 6.35879 22.5979
1 8.89836 5.89889 21.827
1 9.28417 5.66998 23.4569
2 8.95862 7.88492 22.584
1 9.07152 8.14969 23.6281
1 9.65384 8.56408 21.9725
2 7.52862 8.22531 22.096
1 6.63486 7.90157 22.7466
1 7.49737 7.73144 21.1354
2 7.47739 9.75663 21.7798
1 6.51298 10.1786 21.4351
1 7.81223 10.2824 22.6738
1 8.19446 10.0428 20.9734
2 4.9572 14.2323 23.764
1 4.68805 15.1202 23.1095
1 5.67307 14.5387 24.5157
1 5.52029 13.4414 23.2513
2 3.58611 13.7699 24.3691
1 2.95218 13.2644 23.6513
1 3.70631 13.0186 0.119379
2 2.94914 15.0404 0.233516
1 3.59101 15.1768 1.07948
1 2.97357 15.9226 24.6378
2 1.46969 14.7419 0.682436
1 1.46126 13.8837 1.35369
1 0.902117 14.4733 24.7761
2 0.863109 15.9317 1.47217
1 0.21657 15.6344 2.33285
1 1.7173 16.6675 1.92148
1 0.265811 16.5838 0.852214
3 9.13606 12.9618 22.3758
3 10.0734 13.7971 22.1149
3 18.1023 4.25638 7.91933
3 18.8632 3.90735 6.95289
3 6.0484 20.6648 24.4896
3 6.3317 20.2453 23.3758
3 21.8987 12.083 19.6343
3 20.6724 12.1386 19.9357
3 3.00456 11.104 6.02519
3 3.23363 10.2757 5.11327
3 12.0118 4.96323 20.0804
3 12.9775 5.63336 19.6111
3 13.6533 9.46598 20.9179
3 14.5469 10.4079 20.73
3 3.4538 19.376 15.9144
3 2.46735 18.9861 15.1642
3 12.9383 22.1015 14.4883
3 12.2239 21.153 13.9942
3 24.8403 8.09296 14.5121
3 23.8186 7.78079 13.782
105
 Atoms. Timestep: 500
2 10.2257 14.6006 12.9424
1 8.97505 14.3598 12.6316
1 10.278 15.1817 13.8763
1 10.5982 15.2915 12.2017
2 10.9923 13.2665 12.9437
1 11.0824 12.8233 13.9779
1 10.6056 12.4223 12.4134
2 12.5462 13.3116 12.2868
1 12.3948 13.297 11.221
1 13.0268 14.198 12.7331
2 13.1471 11.9125 12.7037
1 12.8974 11.2192 11.9176
1 12.7235 11.613 13.7882
2 14.7122 11.8672 12.8335
1 15.1682 11.0147 13.2755
1 15.0723 11.7142 11.7798
1 15.0382 12.8085 13.274
2 0.274989 0.324771 1.27027
1 0.514911 1.08423 0.541486
1 24.2759 0.422229 1.73207
1 0.899698 0.655837 2.09327
2 0.794539 23.9296 0.592187
1 0.732754 23.047 1.22727
1 0.318157 23.7095 24.6582
2 2.30448 24.1534 0.286876
1 2.48105 24.4907 24.3109
1 2.65729 24.935 0.930159
2 3.1993 22.8783 0.399753
1 2.53925 21.9913 0.489013
1 3.97355 23.0058 1.18085
2 3.99798 22.5863 23.9942
1 4.41856 21.6076 23.9524
1 3.42355 22.7686 23.1164
1 4.92122 23.4042 23.8529
2 1.60068 14.787 17.686
1 1.98089 14.6268 16.6719
1 0.693158 15.3609 17.4254
1 2.26856 15.4873 18.2229
2 1.12519 13.4847 18.4047
1 0.266826 13.0836 17.9794
1 1.99492 12.807 18.2693
2 1.08388 13.5821 20.0325
1 1.71549 14.3287 20.5051
1 0.0711743 13.8913 20.1497
2 1.32052 12.0993 20.4226
1 1.9876 11.6161 19.7131
1 0.353215 11.6293 20.2592
2 1.63608 12.215 21.9727
1 1.67707 11.2115 22.3771
1 2.47916 12.9129 22.2438
1 0.761973 12.5545 22.5399
2 10.9745 6.20719 22.2746
1 11.1544 6.80417 21.3923
1 11.2469 6.68395 23.1832
1 11.4673 5.23022 22.0842
2 9.43268 6.34777 22.5509
1 8.94919 5.8442 21.7155
1 9.2336 5.69163 23.3689
2 8.9286 7.88851 22.621
1 8.94555 8.04446 23.7
1 9.74658 8.42303 22.2479
2 7.52563 8.25063 22.0703
1 6.74662 7.84667 22.6249
1 7.34275 7.69209 21.1363
2 7.56662 9.83196 21.7811
1 6.52169 10.0657 21.5667
1 7.80836 10.2694 22.7594
1 8.33989 10.13 21.086
2 4.92524 14.2533 23.8498
1 4.752 15.0175 23.1316
1 5.55632 14.8238 24.5912
1 5.45182 13.5381 23.1868
2 3.56531 13.7627 24.476
1 2.98059 13.322 23.6484
1 3.65667 12.9435 0.2207
2 2.98346 15.0711 0.238531
1 3.5251 15.5907 1.11647
1 2.96189 15.9699 24.5852
2 1.51641 14.6949 0.642186
1 1.49848 13.8572 1.34033
1 0.953256 14.4265 24.7627
2 0.863231 15.9376 1.37618
1 0.24026 15.7798 2.24969
1 1.51151 16.6249 1.66987
1 0.276379 16.5897 0.687216
3 9.20461 12.9526 22.3687
3 10.1392 13.8019 22.1411
3 18.0975 4.20226 7.81651
3 18.8842 3.8344 6.87672
3 6.01433 20.6907 24.4358
3 6.3129 20.244 23.3798
3 21.8989 12.1439 19.6141
3 20.666 12.1965 19.8879
3 2.96174 11.1019 6.04165
3 3.15729 10.2066 5.181
3 12.0214 4.95796 19.9812